<?xml version="1.0"?>
<VTKFile type="UnstructuredGrid" version="2.2">
  <UnstructuredGrid>
    <Piece NumberOfPoints="1331" NumberOfCells="6000">
      <Points>
        <DataArray type="Float64" NumberOfComponents="3" format="ascii">0.9 0 0 1 0 0 1 0.1 0 1 0.1 0.1 1 0 0.1 0.9 0.1 0 0.9 0 0.1 1 0.2 0.1 0.9 0.1 0.1 1 0.1 0.2 1 0 0.2 1 0.2 0 0.8 0 0 0.9 0 0.2 1 0.1 0.3 1 0 0.3 0.9 0.2 0 1 0.2 0.2 0.9 0.2 0.1 0.8 0.1 0 0.9 0.1 0.2 0.9 0 0.3 1 0.1 0.4 1 0 0.4 0.8 0 0.1 1 0.3 0.1 0.8 0.1 0.1 0.9 0.1 0.3 0.9 0 0.4 1 0.1 0.5 1 0 0.5 1 0.3 0 1 0.3 0.2 0.9 0.2 0.2 0.7000000000000001 0 0 1 0.2 0.3 0.8 0 0.2 0.9 0.1 0.4 0.9 0 0.5 1 0.1 0.6000000000000001 1 0 0.6000000000000001 0.9 0.3 0 0.9 0.3 0.1 0.8 0.2 0 0.8 0.2 0.1 0.7000000000000001 0.1 0 0.8 0.1 0.2 1 0.2 0.4 0.8 0 0.3 0.9 0.1 0.5 0.9 0 0.6000000000000001 1 0.1 0.7000000000000001 1 0 0.7000000000000001 0.7000000000000001 0 0.1 1 0.4 0.1 1 0.3 0.3 0.9 0.3 0.2 0.7000000000000001 0.1 0.1 0.9 0.2 0.3 0.8 0.1 0.3 1 0.2 0.5 0.8 0 0.4 0.9 0.1 0.6000000000000001 0.9 0 0.7000000000000001 1 0.1 0.8 1 0 0.8 1 0.4 0 1 0.4 0.2 0.8 0.2 0.2 0.6000000000000001 0 0 0.7000000000000001 0 0.2 0.9 0.2 0.4 0.8 0.1 0.4 1 0.2 0.6000000000000001 0.8 0 0.5 0.9 0.1 0.7000000000000001 0.9 0 0.8 1 0.1 0.9 1 0 0.9 0.9 0.4 0 0.9 0.4 0.1 0.8 0.3 0 0.8 0.3 0.1 0.7000000000000001 0.2 0 1 0.4 0.3 0.9 0.3 0.3 0.7000000000000001 0.2 0.1 0.6000000000000001 0.1 0 1 0.3 0.4 0.7000000000000001 0.1 0.2 0.7000000000000001 0 0.3 0.9 0.2 0.5 0.8 0.1 0.5 1 0.2 0.7000000000000001 0.8 0 0.6000000000000001 0.9 0.1 0.8 0.9 0 0.9 1 0.1 1 1 0 1 0.6000000000000001 0 0.1 1 0.5 0.1 0.9 0.4 0.2 0.8 0.3 0.2 0.6000000000000001 0.1 0.1 0.8 0.2 0.3 1 0.3 0.5 0.7000000000000001 0.1 0.3 0.7000000000000001 0 0.4 0.9 0.2 0.6000000000000001 0.8 0.1 0.6000000000000001 1 0.2 0.8 0.8 0 0.7000000000000001 0.9 0.1 0.9 0.9 0 1 1 0.5 0 1 0.5 0.2 1 0.4 0.4 0.9 0.4 0.3 0.7000000000000001 0.2 0.2 0.5 0 0 0.9 0.3 0.4 0.6000000000000001 0 0.2 0.8 0.2 0.4 1 0.3 0.6000000000000001 0.7000000000000001 0.1 0.4 0.7000000000000001 0 0.5 0.9 0.2 0.7000000000000001 0.8 0.1 0.7000000000000001 1 0.2 0.9 0.8 0 0.8 0.9 0.1 1 0.9 0.5 0 0.9 0.5 0.1 0.8 0.4 0 0.8 0.4 0.1 0.7000000000000001 0.3 0 1 0.5 0.3 0.7000000000000001 0.3 0.1 0.6000000000000001 0.2 0 0.8 0.3 0.3 0.6000000000000001 0.2 0.1 0.5 0.1 0 0.6000000000000001 0.1 0.2 0.9 0.3 0.5 0.6000000000000001 0 0.3 0.8 0.2 0.5 1 0.3 0.7000000000000001 0.7000000000000001 0.1 0.5 0.7000000000000001 0 0.6000000000000001 0.9 0.2 0.8 0.8 0.1 0.8 1 0.2 1 0.8 0 0.9 0.5 0 0.1 1 0.6000000000000001 0.1 0.9 0.5 0.2 0.8 0.4 0.2 1 0.5 0.4 0.9 0.4 0.4 0.7000000000000001 0.3 0.2 0.5 0.1 0.1 1 0.4 0.5 0.7000000000000001 0.2 0.3 0.6000000000000001 0.1 0.3 0.9 0.3 0.6000000000000001 0.6000000000000001 0 0.4 0.8 0.2 0.6000000000000001 1 0.3 0.8 0.7000000000000001 0.1 0.6000000000000001 0.7000000000000001 0 0.7000000000000001 0.9 0.2 0.9 0.8 0.1 0.9 0.8 0 1 1 0.6000000000000001 0 1 0.6000000000000001 0.2 0.9 0.5 0.3 0.8 0.4 0.3 0.6000000000000001 0.2 0.2 0.4 0 0 0.8 0.3 0.4 0.5 0 0.2 1 0.4 0.6000000000000001 0.7000000000000001 0.2 0.4 0.6000000000000001 0.1 0.4 0.9 0.3 0.7000000000000001 0.6000000000000001 0 0.5 0.8 0.2 0.7000000000000001 1 0.3 0.9 0.7000000000000001 0.1 0.7000000000000001 0.7000000000000001 0 0.8 0.9 0.2 1 0.8 0.1 1 0.9 0.6000000000000001 0 0.9 0.6000000000000001 0.1 0.8 0.5 0 0.8 0.5 0.1 0.7000000000000001 0.4 0 1 0.6000000000000001 0.3 0.7000000000000001 0.4 0.1 0.6000000000000001 0.3 0 0.6000000000000001 0.3 0.1 0.5 0.2 0 1 0.5 0.5 0.9 0.5 0.4 0.7000000000000001 0.3 0.3 0.5 0.2 0.1 0.4 0.1 0 0.9 0.4 0.5 0.5 0.1 0.2 0.8 0.3 0.5 0.5 0 0.3 1 0.4 0.7000000000000001 0.7000000000000001 0.2 0.5 0.6000000000000001 0.1 0.5 0.9 0.3 0.8 0.6000000000000001 0 0.6000000000000001 0.8 0.2 0.8 1 0.3 1 0.7000000000000001 0.1 0.8 0.7000000000000001 0 0.9 0.4 0 0.1 1 0.7000000000000001 0.1 0.9 0.6000000000000001 0.2 0.8 0.5 0.2 1 0.6000000000000001 0.4 0.7000000000000001 0.4 0.2 0.8 0.4 0.4 0.6000000000000001 0.3 0.2 0.4 0.1 0.1 0.6000000000000001 0.2 0.3 0.9 0.4 0.6000000000000001 0.5 0.1 0.3 0.8 0.3 0.6000000000000001 0.5 0 0.4 1 0.4 0.8 0.7000000000000001 0.2 0.6000000000000001 0.6000000000000001 0.1 0.6000000000000001 0.9 0.3 0.9 0.6000000000000001 0 0.7000000000000001 0.8 0.2 0.9 0.7000000000000001 0.1 0.9 0.7000000000000001 0 1 1 0.7000000000000001 0 1 0.7000000000000001 0.2 0.9 0.6000000000000001 0.3 0.8 0.5 0.3 1 0.6000000000000001 0.5 0.9 0.5 0.5 0.7000000000000001 0.4 0.3 0.5 0.2 0.2 0.3 0 0 1 0.5 0.6000000000000001 0.7000000000000001 0.3 0.4 0.4 0 0.2 0.6000000000000001 0.2 0.4 0.9 0.4 0.7000000000000001 0.5 0.1 0.4 0.8 0.3 0.7000000000000001 0.5 0 0.5 1 0.4 0.9 0.7000000000000001 0.2 0.7000000000000001 0.6000000000000001 0.1 0.7000000000000001 0.9 0.3 1 0.6000000000000001 0 0.8 0.8 0.2 1 0.7000000000000001 0.1 1 0.9 0.7000000000000001 0 0.9 0.7000000000000001 0.1 0.8 0.6000000000000001 0 0.8 0.6000000000000001 0.1 0.7000000000000001 0.5 0 1 0.7000000000000001 0.3 0.7000000000000001 0.5 0.1 0.6000000000000001 0.4 0 0.6000000000000001 0.4 0.1 0.5 0.3 0 0.9 0.6000000000000001 0.4 0.5 0.3 0.1 0.4 0.2 0 0.8 0.5 0.4 0.6000000000000001 0.3 0.3 0.4 0.2 0.1 0.3 0.1 0 0.8 0.4 0.5 0.4 0.1 0.2 1 0.5 0.7000000000000001 0.7000000000000001 0.3 0.5 0.4 0 0.3 0.6000000000000001 0.2 0.5 0.9 0.4 0.8 0.5 0.1 0.5 0.8 0.3 0.8 0.5 0 0.6000000000000001 1 0.4 1 0.7000000000000001 0.2 0.8 0.6000000000000001 0.1 0.8 0.6000000000000001 0 0.9 0.3 0 0.1 1 0.8 0.1 0.9 0.7000000000000001 0.2 0.8 0.6000000000000001 0.2 1 0.7000000000000001 0.4 0.7000000000000001 0.5 0.2 0.6000000000000001 0.4 0.2 1 0.6000000000000001 0.6000000000000001 0.9 0.6000000000000001 0.5 0.7000000000000001 0.4 0.4 0.5 0.3 0.2 0.3 0.1 0.1 0.9 0.5 0.6000000000000001 0.5 0.2 0.3 0.8 0.4 0.6000000000000001 0.4 0.1 0.3 1 0.5 0.8 0.7000000000000001 0.3 0.6000000000000001 0.4 0 0.4 0.6000000000000001 0.2 0.6000000000000001 0.9 0.4 0.9 0.5 0.1 0.6000000000000001 0.8 0.3 0.9 0.5 0 0.7000000000000001 0.7000000000000001 0.2 0.9 0.6000000000000001 0.1 0.9 0.6000000000000001 0 1 1 0.8 0 1 0.8 0.2 0.9 0.7000000000000001 0.3 0.8 0.6000000000000001 0.3 1 0.7000000000000001 0.5 0.7000000000000001 0.5 0.3 0.8 0.5 0.5 0.6000000000000001 0.4 0.3 0.4 0.2 0.2 0.2 0 0 0.6000000000000001 0.3 0.4 0.3 0 0.2 0.9 0.5 0.7000000000000001 0.5 0.2 0.4 0.8 0.4 0.7000000000000001 0.4 0.1 0.4 1 0.5 0.9 0.7000000000000001 0.3 0.7000000000000001 0.4 0 0.5 0.6000000000000001 0.2 0.7000000000000001 0.9 0.4 1 0.5 0.1 0.7000000000000001 0.8 0.3 1 0.5 0 0.8 0.7000000000000001 0.2 1 0.6000000000000001 0.1 1 0.9 0.8 0 0.9 0.8 0.1 0.8 0.7000000000000001 0 0.8 0.7000000000000001 0.1 0.7000000000000001 0.6000000000000001 0 1 0.8 0.3 0.7000000000000001 0.6000000000000001 0.1 0.6000000000000001 0.5 0 0.6000000000000001 0.5 0.1 0.5 0.4 0 0.9 0.7000000000000001 0.4 0.5 0.4 0.1 0.4 0.3 0 0.8 0.6000000000000001 0.4 0.4 0.3 0.1 0.3 0.2 0 1 0.7000000000000001 0.6000000000000001 0.9 0.6000000000000001 0.6000000000000001 0.7000000000000001 0.5 0.4 0.5 0.3 0.3 0.3 0.2 0.1 0.2 0.1 0 1 0.6000000000000001 0.7000000000000001 0.7000000000000001 0.4 0.5 0.3 0.1 0.2 0.6000000000000001 0.3 0.5 0.3 0 0.3 0.9 0.5 0.8 0.5 0.2 0.5 0.8 0.4 0.8 0.4 0.1 0.5 1 0.5 1 0.7000000000000001 0.3 0.8 0.4 0 0.6000000000000001 0.6000000000000001 0.2 0.8 0.5 0.1 0.8 0.5 0 0.9 0.2 0 0.1 1 0.9 0.1 0.9 0.8 0.2 0.8 0.7000000000000001 0.2 1 0.8 0.4 0.7000000000000001 0.6000000000000001 0.2 0.6000000000000001 0.5 0.2 0.9 0.7000000000000001 0.5 0.5 0.4 0.2 0.8 0.6000000000000001 0.5 0.6000000000000001 0.4 0.4 0.4 0.3 0.2 0.2 0.1 0.1 0.8 0.5 0.6000000000000001 0.4 0.2 0.3 1 0.6000000000000001 0.8 0.7000000000000001 0.4 0.6000000000000001 0.3 0.1 0.3 0.6000000000000001 0.3 0.6000000000000001 0.3 0 0.4 0.9 0.5 0.9 0.5 0.2 0.6000000000000001 0.8 0.4 0.9 0.4 0.1 0.6000000000000001 0.7000000000000001 0.3 0.9 0.4 0 0.7000000000000001 0.6000000000000001 0.2 0.9 0.5 0.1 0.9 0.5 0 1 1 0.9 0 1 0.9 0.2 0.9 0.8 0.3 0.8 0.7000000000000001 0.3 1 0.8 0.5 0.7000000000000001 0.6000000000000001 0.3 0.6000000000000001 0.5 0.3 1 0.7000000000000001 0.7000000000000001 0.9 0.7000000000000001 0.6000000000000001 0.7000000000000001 0.5 0.5 0.5 0.4 0.3 0.3 0.2 0.2 0.1 0 0 0.9 0.6000000000000001 0.7000000000000001 0.5 0.3 0.4 0.2 0 0.2 0.8 0.5 0.7000000000000001 0.4 0.2 0.4 1 0.6000000000000001 0.9 0.7000000000000001 0.4 0.7000000000000001 0.3 0.1 0.4 0.6000000000000001 0.3 0.7000000000000001 0.3 0 0.5 0.9 0.5 1 0.5 0.2 0.7000000000000001 0.8 0.4 1 0.4 0.1 0.7000000000000001 0.7000000000000001 0.3 1 0.4 0 0.8 0.6000000000000001 0.2 1 0.5 0.1 1 0.9 0.9 0 0.9 0.9 0.1 0.8 0.8 0 0.8 0.8 0.1 0.7000000000000001 0.7000000000000001 0 1 0.9 0.3 0.7000000000000001 0.7000000000000001 0.1 0.6000000000000001 0.6000000000000001 0 0.6000000000000001 0.6000000000000001 0.1 0.5 0.5 0 0.9 0.8 0.4 0.5 0.5 0.1 0.4 0.4 0 0.8 0.7000000000000001 0.4 0.4 0.4 0.1 0.3 0.3 0 1 0.8 0.6000000000000001 0.7000000000000001 0.6000000000000001 0.4 0.3 0.3 0.1 0.2 0.2 0 0.8 0.6000000000000001 0.6000000000000001 0.6000000000000001 0.5 0.4 0.4 0.3 0.3 0.2 0.2 0.1 0.1 0.1 0 0.6000000000000001 0.4 0.5 0.2 0.1 0.2 0.9 0.6000000000000001 0.8 0.5 0.3 0.5 0.2 0 0.3 0.8 0.5 0.8 0.4 0.2 0.5 1 0.6000000000000001 1 0.7000000000000001 0.4 0.8 0.3 0.1 0.5 0.6000000000000001 0.3 0.8 0.3 0 0.6000000000000001 0.5 0.2 0.8 0.4 0.1 0.8 0.4 0 0.9 0.1 0 0.1 1 1 0.1 0.9 0.9 0.2 0.8 0.8 0.2 1 0.9 0.4 0.7000000000000001 0.7000000000000001 0.2 0.6000000000000001 0.6000000000000001 0.2 0.9 0.8 0.5 0.5 0.5 0.2 0.8 0.7000000000000001 0.5 0.4 0.4 0.2 1 0.8 0.7000000000000001 0.9 0.7000000000000001 0.7000000000000001 0.7000000000000001 0.6000000000000001 0.5 0.5 0.4 0.4 0.3 0.3 0.2 0.1 0.1 0.1 1 0.7000000000000001 0.8 0.7000000000000001 0.5 0.6000000000000001 0.3 0.2 0.3 0.6000000000000001 0.4 0.6000000000000001 0.2 0.1 0.3 0.9 0.6000000000000001 0.9 0.5 0.3 0.6000000000000001 0.2 0 0.4 0.8 0.5 0.9 0.4 0.2 0.6000000000000001 0.7000000000000001 0.4 0.9 0.3 0.1 0.6000000000000001 0.6000000000000001 0.3 0.9 0.3 0 0.7000000000000001 0.5 0.2 0.9 0.4 0.1 0.
[...]
      <CellData>
        <DataArray type="UInt8" Name="vtkGhostType" format="ascii" RangeMin="0" RangeMax="1">0 0 0 0 0 0 0 0 0 0 0 0 0 0 0 0 0 0 0 0 0 0 0 0 0 0 0 0 0 0 0 0 0 0 0 0 0 0 0 0 0 0 0 0 0 0 0 0 0 0 0 0 0 0 0 0 0 0 0 0 0 0 0 0 0 0 0 0 0 0 0 0 0 0 0 0 0 0 0 0 0 0 0 0 0 0 0 0 0 0 0 0 0 0 0 0 0 0 0 0 0 0 0 0 0 0 0 0 0 0 0 0 0 0 0 0 0 0 0 0 0 0 0 0 0 0 0 0 0 0 0 0 0 0 0 0 0 0 0 0 0 0 0 0 0 0 0 0 0 0 0 0 0 0 0 0 0 0 0 0 0 0 0 0 0 0 0 0 0 0 0 0 0 0 0 0 0 0 0 0 0 0 0 0 0 0 0 0 0 0 0 0 0 0 0 0 0 0 0 0 0 0 0 0 0 0 0 0 0 0 0 0 0 0 0 0 0 0 0 0 0 0 0 0 0 0 0 0 0 0 0 0 0 0 0 0 0 0 0 0 0 0 0 0 0 0 0 0 0 0 0 0 0 0 0 0 0 0 0 0 0 0 0 0 0 0 0 0 0 0 0 0 0 0 0 0 0 0 0 0 0 0 0 0 0 0 0 0 0 0 0 0 0 0 0 0 0 0 0 0 0 0 0 0 0 0 0 0 0 0 0 0 0 0 0 0 0 0 0 0 0 0 0 0 0 0 0 0 0 0 0 0 0 0 0 0 0 0 0 0 0 0 0 0 0 0 0 0 0 0 0 0 0 0 0 0 0 0 0 0 0 0 0 0 0 0 0 0 0 0 0 0 0 0 0 0 0 0 0 0 0 0 0 0 0 0 0 0 0 0 0 0 0 0 0 0 0 0 0 0 0 0 0 0 0 0 0 0 0 0 0 0 0 0 0 0 0 0 0 0 0 0 0 0 0 0 0 0 0 0 0 0 0 0 0 0 0 0 0 0 0 0 0 0 0 0 0 0 0 0 0 0 0 0 0 0 0 0 0 0 0 0 0 0 0 0 0 0 0 0 0 0 0 0 0 0 0 0 0 0 0 0 0 0 0 0 0 0 0 0 0 0 0 0 0 0 0 0 0 0 0 0 0 0 0 0 0 0 0 0 0 0 0 0 0 0 0 0 0 0 0 0 0 0 0 0 0 0 0 0 0 0 0 0 0 0 0 0 0 0 0 0 0 0 0 0 0 0 0 0 0 0 0 0 0 0 0 0 0 0 0 0 0 0 0 0 0 0 0 0 0 0 0 0 0 0 0 0 0 0 0 0 0 0 0 0 0 0 0 0 0 0 0 0 0 0 0 0 0 0 0 0 0 0 0 0 0 0 0 0 0 0 0 0 0 0 0 0 0 0 0 0 0 0 0 0 0 0 0 0 0 0 0 0 0 0 0 0 0 0 0 0 0 0 0 0 0 0 0 0 0 0 0 0 0 0 0 0 0 0 0 0 0 0 0 0 0 0 0 0 0 0 0 0 0 0 0 0 0 0 0 0 0 0 0 0 0 0 0 0 0 0 0 0 0 0 0 0 0 0 0 0 0 0 0 0 0 0 0 0 0 0 0 0 0 0 0 0 0 0 0 0 0 0 0 0 0 0 0 0 0 0 0 0 0 0 0 0 0 0 0 0 0 0 0 0 0 0 0 0 0 0 0 0 0 0 0 0 0 0 0 0 0 0 0 0 0 0 0 0 0 0 0 0 0 0 0 0 0 0 0 0 0 0 0 0 0 0 0 0 0 0 0 0 0 0 0 0 0 0 0 0 0 0 0 0 0 0 0 0 0 0 0 0 0 0 0 0 0 0 0 0 0 0 0 0 0 0 0 0 0 0 0 0 0 0 0 0 0 0 0 0 0 0 0 0 0 0 0 0 0 0 0 0 0 0 0 0 0 0 0 0 0 0 0 0 0 0 0 0 0 0 0 0 0 0 0 0 0 0 0 0 0 0 0 0 0 0 0 0 0 0 0 0 0 0 0 0 0 0 0 0 0 0 0 0 0 0 0 0 0 0 0 0 0 0 0 0 0 0 0 0 0 0 0 0 0 0 0 0 0 0 0 0 0 0 0 0 0 0 0 0 0 0 0 0 0 0 0 0 0 0 0 0 0 0 0 0 0 0 0 0 0 0 0 0 0 0 0 0 0 0 0 0 0 0 0 0 0 0 0 0 0 0 0 0 0 0 0 0 0 0 0 0 0 0 0 0 0 0 0 0 0 0 0 0 0 0 0 0 0 0 0 0 0 0 0 0 0 0 0 0 0 0 0 0 0 0 0 0 0 0 0 0 0 0 0 0 0 0 0 0 0 0 0 0 0 0 0 0 0 0 0 0 0 0 0 0 0 0 0 0 0 0 0 0 0 0 0 0 0 0 0 0 0 0 0 0 0 0 0 0 0 0 0 0 0 0 0 0 0 0 0 0 0 0 0 0 0 0 0 0 0 0 0 0 0 0 0 0 0 0 0 0 0 0 0 0 0 0 0 0 0 0 0 0 0 0 0 0 0 0 0 0 0 0 0 0 0 0 0 0 0 0 0 0 0 0 0 0 0 0 0 0 0 0 0 0 0 0 0 0 0 0 0 0 0 0 0 0 0 0 0 0 0 0 0 0 0 0 0 0 0 0 0 0 0 0 0 0 0 0 0 0 0 0 0 0 0 0 0 0 0 0 0 0 0 0 0 0 0 0 0 0 0 0 0 0 0 0 0 0 0 0 0 0 0 0 0 0 0 0 0 0 0 0 0 0 0 0 0 0 0 0 0 0 0 0 0 0 0 0 0 0 0 0 0 0 0 0 0 0 0 0 0 0 0 0 0 0 0 0 0 0 0 0 0 0 0 0 0 0 0 0 0 0 0 0 0 0 0 0 0 0 0 0 0 0 0 0 0 0 0 0 0 0 0 0 0 0 0 0 0 0 0 0 0 0 0 0 0 0 0 0 0 0 0 0 0 0 0 0 0 0 0 0 0 0 0 0 0 0 0 0 0 0 0 0 0 0 0 0 0 0 0 0 0 0 0 0 0 0 0 0 0 0 0 0 0 0 0 0 0 0 0 0 0 0 0 0 0 0 0 0 0 0 0 0 0 0 0 0 0 0 0 0 0 0 0 0 0 0 0 0 0 0 0 0 0 0 0 0 0 0 0 0 0 0 0 0 0 0 0 0 0 0 0 0 0 0 0 0 0 0 0 0 0 0 0 0 0 0 0 0 0 0 0 0 0 0 0 0 0 0 0 0 0 0 0 0 0 0 0 0 0 0 0 0 0 0 0 0 0 0 0 0 0 0 0 0 0 0 0 0 0 0 0 0 0 0 0 0 0 0 0 0 0 0 0 0 0 0 0 0 0 0 0 0 0 0 0 0 0 0 0 0 0 0 0 0 0 0 0 0 0 0 0 0 0 0 0 0 0 0 0 0 0 0 0 0 0 0 0 0 0 0 0 0 0 0 0 0 0 0 0 0 0 0 0 0 0 0 0 0 0 0 0 0 0 0 0 0 0 0 0 0 0 0 0 0 0 0 0 0 0 0 0 0 0 0 0 0 0 0 0 0 0 0 0 0 0 0 0 0 0 0 0 0 0 0 0 0 0 0 0 0 0 0 0 0 0 0 0 0 0 0 0 0 0 0 0 0 0 0 0 0 0 0 0 0 0 0 0 0 0 0 0 0 0 0 0 0 0 0 0 0 0 0 0 0 0 0 0 0 0 0 0 0 0 0 0 0 0 0 0 0 0 0 0 0 0 0 0 0 0 0 0 0 0 0 0 0 0 0 0 0 0 0 0 0 0 0 0 0 0 0 0 0 0 0 0 0 0 0 0 0 0 0 0 0 0 0 0 0 0 0 0 0 0 0 0 0 0 0 0 0 0 0 0 0 0 0 0 0 0 0 0 0 0 0 0 0 0 0 0 0 0 0 0 0 0 0 0 0 0 0 0 0 0 0 0 0 0 0 0 0 0 0 0 0 0 0 0 0 0 0 0 0 0 0 0 0 0 0 0 0 0 0 0 0 0 0 0 0 0 0 0 0 0 0 0 0 0 0 0 0 0 0 0 0 0 0 0 0 0 0 0 0 0 0 0 0 0 0 0 0 0 0 0 0 0 0 0 0 0 0 0 0 0 0 0 0 0 0 0 0 0 0 0 0 0 0 0 0 0 0 0 0 0 0 0 0 0 0 0 0 0 0 0 0 0 0 0 0 0 0 0 0 0 0 0 0 0 0 0 0 0 0 0 0 0 0 0 0 0 0 0 0 0 0 0 0 0 0 0 0 0 0 0 0 0 0 0 0 0 0 0 0 0 0 0 0 0 0 0 0 0 0 0 0 0 0 0 0 0 0 0 0 0 0 0 0 0 0 0 0 0 0 0 0 0 0 0 0 0 0 0 0 0 0 0 0 0 0 0 0 0 0 0 0 0 0 0 0 0 0 0 0 0 0 0 0 0 0 0 0 0 0 0 0 0 0 0 0 0 0 0 0 0 0 0 0 0 0 0 0 0 0 0 0 0 0 0 0 0 0 0 0 0 0 0 0 0 0 0 0 0 0 0 0 0 0 0 0 0 0 0 0 0 0 0 0 0 0 0 0 0 0 0 0 0 0 0 0 0 0 0 0 0 0 0 0 0 0 0 0 0 0 0 0 0 0 0 0 0 0 0 0 0 0 0 0 0 0 0 0 0 0 0 0 0 0 0 0 0 0 0 0 0 0 0 0 0 0 0 0 0 0 0 0 0 0 0 0 0 0 0 0 0 0 0 0 0 0 0 0 0 0 0 0 0 0 0 0 0 0 0 0 0 0 0 0 0 0 0 0 0 0 0 0 0 0 0 0 0 0 0 0 0 0 0 0 0 0 0 0 0 0 0 0 0 0 0 0 0 0 0 0 0 0 0 0 0 0 0 0 0 0 0 0 0 0 0 0 0 0 0 0 0 0 0 0 0 0 0 0 0 0 0 0 0 0 0 0 0 0 0 0 0 0 0 0 0 0 0 0 0 0 0 0 0 0 0 0 0 0 0 0 0 0 0 0 0 0 0 0 0 0 0 0 0 0 0 0 0 0 0 0 0 0 0 0 0 0 0 0 0 0 0 0 0 0 0 0 0 0 0 0 0 0 0 0 0 0 0 0 0 0 0 0 0 0 0 0 0 0 0 0 0 0 0 0 0 0 0 0 0 0 0 0 0 0 0 0 0 0 0 0 0 0 0 0 0 0 0 0 0 0 0 0 0 0 0 0 0 0 0 0 0 0 0 0 0 0 0 0 0 0 0 0 0 0 0 0 0 0 0 0 0 0 0 0 0 0 0 0 0 0 0 0 0 0 0 0 0 0 0 0 0 0 0 0 0 0 0 0 0 0 0 0 0 0 0 0 0 0 0 0 0 0 0 0 0 0 0 0 0 0 0 0 0 0 0 0 0 0 0 0 0 0 0 0 0 0 0 0 0 0 0 0 0 0 0 0 0 0 0 0 0 0 0 0 0 0 0 0 0 0 0 0 0 0 0 0 0 0 0 0 0 0 0 0 0 0 0 0 0 0 0 0 0 0 0 0 0 0 0 0 0 0 0 0 0 0 0 0 0 0 0 0 0 0 0 0 0 0 0 0 0 0 0 0 0 0 0 0 0 0 0 0 0 0 0 0 0 0 0 0 0 0 0 0 0 0 0 0 0 0 0 0 0 0 0 0 0 0 0 0 0 0 0 0 0 0 0 0 0 0 0 0 0 0 0 0 0 0 0 0 0 0 0 0 0 0 0 0 0 0 0 0 0 0 0 0 0 0 0 0 0 0 0 0 0 0 0 0 0 0 0 0 0 0 0 0 0 0 0 0 0 0 0 0 0 0 0 0 0 0 0 0 0 0 0 0 0 0 0 0 0 0 0 0 0 0 0 0 0 0 0 0 0 0 0 0 0 0 0 0 0 0 0 0 0 0 0 0 0 0 0 0 0 0 0 0 0 0 0 0 0 0 0 0 0 0 0 0 0 0 0 0 0 0 0 0 0 0 0 0 0 0 0 0 0 0 0 0 0 0 0 0 0 0 0 0 0 0 0 0 0 0 0 0 0 0 0 0 0 0 0 0 0 0 0 0 0 0 0 0 0 0 0 0 0 0 0 0 0 0 0 0 0 0 0 0 0 0 0 0 0 0 0 0 0 0 0 0 0 0 0 0 0 0 0 0 0 0 0 0 0 0 0 0 0 0 0 0 0 0 0 0 0 0 0 0 0 0 0 0 0 0 0 0 0 0 0 0 0 0 0 0 0 0 0 0 0 0 0 0 0 0 0 0 0 0 0 0 0 0 0 0 0 0 0 0 0 0 0 0 0 0 0 0 0 0 0 0 0 0 0 0 0 0 0 0 0 0 0 0 0 0 0 0 0 0 0 0 0 0 0 0 0 0 0 0 0 0 0 0 0 0 0 0 0 0 0 0 0 0 0 0 0 0 0 0 0 0 0 0 0 0 0 0 0 0 0 0 0 0 0 0 0 0 0 0 0 0 0 0 0 0 0 0 0 0 0 0 0 0 0 0 0 0 0 0 0 0 0 0 0 0 0 0 0 0 0 0 0 0 0 0 0 0 0 0 0 0 0 0 0 0 0 0 0 0 0 0 0 0 0 0 0 0 0 0 0 0 0 0 0 0 0 0 0 0 0 0 0 0 0 0 0 0 0 0 0 0 0 0 0 0 0 0 0 0 0 0 0 0 0 0 0 0 0 0 0 0 0 0 0 0 0 0 0 0 0 0 0 0 0 0 0 0 0 0 0 0 0 0 0 0 0 0 0 0 0 0 0 0 0 0 0 0 0 0 0 0 0 0 0 0 0 0 0 0 0 0 0 0 0 0 0 0 0 0 0 0 0 0 0 0 0 0 0 0 0 0 0 0 0 0 0 0 0 0 0 0 0 0 0 0 0 0 0 0 0 0 0 0 0 0 0 0 0 0 0 0 0 0 0 0 0 0 0 0 0 0 0 0 0 0 0 0 0 0 0 0 0 0 0 0 0 0 0 0 0 0 0 0 0 0 0 0 0 0 0 0 0 0 0 0 0 0 0 0 0 0 0 0 0 0 0 0 0 0 0 0 0 0 0 0 0 0 0 0 0 0 0 0 0 0 0 0 0 0 0 0 0 0 0 0 0 0 0 0 0 0 0 0 0 0 0 0 0 0 0 0 0 0 0 0 0 0 0 0 0 0 0 0 0 0 0 0 0 0 0 0 0 0 0 0 0 0 0 0 0 0 0 0 0 0 0 0 0 0 0 0 0 0 0 0 0 0 0 0 0 0 0 0 0 0 0 0 0 0 0 0 0 0 0 0 0 0 0 0 0 0 0 0 0 0 0 0 0 0 0 0 0 0 0 0 0 0 0 0 0 0 0 0 0 0 0 0 0 0 0 0 0 0 0 0 0 0 0 0 0 0 0 0 0 0 0 0 0 0 0 0 0 0 0 0 0 0 0 0 0 0 0 0 0 0 0 0 0 0 0 0 0 0 0 0 0 0 0 0 0 0 0 0 0 0 0 0 0 0 0 0 0 0 0 0 0 0 0 0 0 0 0 0 0 0 0 0 0 0 0 0 0 0 0 0 0 0 0 0 0 0 0 0 0 0 0 0 0 0 0 0 0 0 0 0 0 0 0 0 0 0 0 0 0 0 0 0 0 0 0 0 0 0 0 0 0 0 0 0 0 0 0 0 0 0 0 0 0 0 0 0 0 0 0 0 0 0 0 0 0 0 0 0 0 0 0 0 0 0 0 0 0 0 0 0 0 0 0 0 0 0 0 0 0 0 0 0 0 0 0 0 0 0 0 0 0 0 0 0 0 0 0 0 0 0 0 0 0 0 0 0 0 0 0 0 0 0 0 0 0 0 0 0 0 0 0 0 0 0 0 0 0 0 0 0 0 0 0 0 0 0 0 0 0 0 0 0 0 0 0 0 0 0 0 0 0 0 0 0 0 0 0 0 0 0 0 0 0 0 0 0 0 0 0 0 0 0 0 0 0 0 0 0 0 0 0 0 0 0 0 0 0 0 0 0 0 0 0 0 0 0 0 0 0 0 0 0 0 0 0 0 0 0 0 0 0 0 0 0 0 0 0 0 0 0 0 0 0 0 0 0 0 0 0 0 0 0 0 0 0 0 0 0 0 0 0 0 0 0 0 0 0 0 0 0 0 0 0 0 0 0 0 0 0 0 0 0 0 0 0 0 0 0 0 0 0 0 0 0 0 0 0 0 0 0 0 0 0 0 0 0 0 0 0 0 0 0 0 0 0 0 0 0 0 0 0 0 0 0 0 0 0 0 0 0 0 0 0 0 0 0 0 0 0 0 0 0 0 0 0 0 0 0 0 0 0 0 0 0 0 0 0 0 0 0 0 0 0 0 0 0 0 0 0 0 0 0 0 0 0 0 0 0 0 0 0 0 0 0 0 0 0 0 0 0 0 0 0 0 0 0 0 0 0 0 0 0 0 0 0 0 0 0 0 0 0 0 0 0 0 0 0 0 0 0 0 0 0 0 0 0 0 0 0 0 0 0 0 0 0 0 0 0 0 0 0 0 0 0 0 0 0 0 0 0 0 0 0 0 0 0 0 0 0 0 0 0 0 0 0 0 0 0 0 0 0 0 0 0 0 0 0 0 0 0 0 0 0 0 0 0 0 0 0 0 0 0 0 0 0 0 0 0 0 0 0 0 0 0 0 0 0 0 0 0 0 0 0 0 0 0 0 0 0 0 0 0 0 0 0 0 0 0 0 0 0 0 0 0 0 0 0 0 0 0 0 0 0 0 0 0 0 0 0 0 0 0 0 0 0 0 0 0 0 0 0 0 0 0 0 0 0 0 0 0 0 0 0 0 0 0 0 0 0 0 0 0 0 0 0 0 0 0 0 0 0 0 0 0 0 0 0 0 0 0 0 0 0 0 0 0 0 0 0 0 0 0 0 0 0 0 0 0 0 0 0 0 0 0 0 0 0 0 0 0 0 0 0 0 0 0 0 0 0 0 0 0 0 0 0 0 0 0 0 0 0 0 0 0 0 0 0 0 0 0 0 0 0 0 0 0 0 0 0 0 0 0 0 0 0 0 0 0 0 0 0 0 0 0 0 0 0 0 0 0 0 0 0 0 0 0 0 0 0 0 0 0 0 0 0 0 0 0 0 0 0 0 0 0 0 0 0 0 0 0 0 0 0 0 0 0 0 0 0 0 0 0 0 0 0 0 0 0 0 0 0 0 0 0 0 0 0 0 0 0 0 0 0 0 0 0 0 0 0 0 0 0 0 0 0 0 0 0 0 0 0 0 0 0 0 0 0 0 0 0 0 0 0 0 0 0 0 0 0 0 0 0 0 0 0 0 0 0 0 0 0 0 0 0 0 0 0 0 0 0 0 0 0 0 0 0 0 0 0 0 0 0 0 0 0 0 0 0 0 0 0 0 0 0 0 0 0 0 0 0 0 0 0 0 0 0 0 0 0 0 0 0 0 0 0 0 0 0 0 0 0 0 0 0 0 0 0 0 0 0 0 0 0 0 0 0 0 0 0 0 0 0 0 0 0 0 0 0 0 0 0 0 0 0 0 0 0 0 0 0 0 0 0 0 0 0 0 0 0 0 0 0 0 0 0 0 0 0 0 0 0 0 0 0 0 0 0 0 0 0 0 0 0 0 0 0 0 0 0 0 0 0 0 0 0 0 0 0 0 0 0 0 0 0 0 0 0 0 0 0 0 0 0 0 0 0 0 0 0 0 0 0 0 0 0 0 0 0 0 0 0 0 0 0 0 0 0 0 0 0 0 0 0 0 0 0 0 0 0 0 0 0 0 0 0 0 0 0 0 0 0 0 0 0 0 0 0 0 0 0 0 0 0 0 0 0 0 0 0 0 0 0 0 0 0 0 0 0 0 0 0 0 0 0 0 0 0 0 0 0 0 0 0 0 0 0 0 0 0 0 0 0 0 0 0 0 0 0 0 0 0 0 0 0 0 0 0 0 0 0 0 0 0 0 0 0 0 0 0 0 0 0 0 0 0 0 0 0 0 0 0 0 0 0 0 0 0 0 0 0 0 0 0 0 0 0 0 0 0 0 0 0 0 0 0 0 0 0 0 0 0 0 0 0 0 0 0 0 0 0 0 0 0 0 0 0 0 0 0 0 0 0 0 0 0 0 0 0 0 0 0 0 0 0 0 0 0 0 0 0 0 0 0 0 0 0 0 0 0 0 0 0 0 0 0 0 0 0 0 0 0 0 0 0 0 0 0 0 0 0 0 0 0 0 0 0 0 0 0 0 0 0 0 0 0 0 0 0 0 0 0 0 0 0 0 0 0 0 0 0 0 0 0 0 0 0 0 0 0 0 0 0 0 0 0 0 0 0 0 0 0 0 0 0 0 0 0 0 0 0 0 0 0 0 0 0 0 0 0 0 0 0 0 0 0 0 0 0 0 0 0 0 0 0 0 0 0 0 0 0 0 0 0 0 0 0 0 0 0 0 0 0 0 0 0 0 0 0 0 0 0 0 0 0 0 0 0 0 0 0 0 0 0 0 0 0 0 0 0 0 0 0 0 0 0 0 0 0 0 0 0 0 0 0 0 0 0 0 0 0 0 0 0 0 0 0 0 0 0 0 0 0 0 0 0 0 0 0 0 0 0 0 0 0 0 0 0 0 0 0 0 0 0 0 0 0 0 0 0 0 0 0 0 0 0 0 0 0 0 0 0 0 0 0 0 0 0 0 0 0 0 0 0 0 0 0 0 0 0 0 0 0 0 0 0 0 0 0 0 0 0 0 0 0 0 0 0 0 0 0 0 0 0 0 0 0 0 0 0 0 0 0 0 0 0 0 0 0 0 0 0 0 0 0 0 0 0 0 0 0 0 0 0 0 0 0 0 0 0 0 0 0 0 0 0 0 0 0 0 0 0 0 0 0 0 0 0 0 0 0 0 0 0 0 0 0 0 0 0 0 0 0 0 0 0 0 0 0 0 0 0 0 0 0 0 0 0 0 0 0 0 0 0 0 0 0 0 0 0 0 0 0 0 0 0 0 0 0 0 0 0 0 0 0 0 0 0 0 0 0 0 0 0 0 0 0 0 0 0 0 0 0 0 0 0 0 0 0 0 0 0 0 0 0 0 0 0 0 0 0 0 0 0 0 0 0 0 0 0 0 0 0 0 0 0 0 0 0 0 0 0 0 0 0 0 0 0 0 0 0 0 0 0 0 0 0 0 0 0 0 0 0 0 0 0 0 0 0 0 0 0 0 0 0 0 0 0 0 0 0 0 0 0 0 0 0 0 0 0 0 0 0 0 0 0 0 0 0 0 0 0 0 0 0 0 0 0 0 0 0 0 0 0 0 0 0 0 0 0 0 0 0 0 0 0 0 0 0 0 0 0 0 0 0 0 0 0 0 0 0 0 0 0 0 0 0 0 0 0 0 0 0 0 0 0 0 0 0 0 0 0 0 0 0 0 0 0 0 0 0 0 0 0 0 0 0 0 0 0 0 0 0 0 0 0 0 0 0 0 0 0 0 0 0 0 0 0 0 0 0 0 0 0 0 0 0 0 0 0 0 0 0 0 0 0 0 0 0 0 0 0 0 0 0 0 0 0 0 0 0 0 0 0 0 0 0 0 0 0 0 0 0 0 0 0 0 0 0 0 0 0 0 0 0 0 0 0 0 0 0 0 0 0 0 0 0 0 0 0 0 0 0 0 0 0 0 0 0 0 0 0 0 0 0 0 0 0 0 0 0 0 0 0 0 0 0 0 0 0 0 0 0 0 0 0 0 0 0 0 0 0 0 0 0 0 0 0 0 0 0 0 0 0 0 0 0 0 0 0 0 0 0 0 0 0 0 0 0 0 0 0 0 0 0 0 0 0 0 0 0 0 0 0 0 0 0 0 0 0 0 0 0 0 0 0 0 0 0 0 0 0 0 0 0 0 0 0 0 0 0 0 0 0 0 0 0 0 0 0 0 0 0 0 0 0 0 0 0 0 0 0 0 0 0 0 0 0 0 0 0 0 0 0 0 0 0 0 0 0 0 0 0 0 0 0 0 0 0 0 0 0 0 0 0 0 0 0 0 0 0 0 0 0 0 0 0 0 0 0 0 0 0 0 0 0 0 0 0 0 0 0 0 0 0 0 0 0 0 0 0 0 0 0 0 0 0 0 0 0 0 0 0 0 0 0 0 0 0 0 0 0 0 0 0 0 0 0 0 0 0 0 0 0 0 0 0 0 0 0 0 0 0 0 0 0 0 0 0 0 0 0 0 0 0 0 0 0 0 0 0 0 0 0 0 0 0 0 0 0 0 0 0 0 0 0 0 0 0 0 0 0 0 0 0 0 0 0 0 0 0 0 0 0 0 0 0 0 0 0 0 0 0 0 0 0 0 0 0 0 0 0 0 0 0 0 0 0 0 0 0 0 0 0 0 0 0 0 0 0 0 0 0 0 0 0 0 0 0 0 0 0 0 0 0 0 0 0 0 0 0 0 0 0 0 0 0 0 0 0 0 0 0 0 0 0 0 0 0 0 0 0 0 0 0 0 0 0 0 0 0 0 0 0 0 0 0 0 0 0 0 0 0 0 0 0 0 0 0 0 0 0 0 0 0 0 0 0 0 0 0 0 0 0 0 0 0 0 0 0 0 0 0 0 0 0 0 0 0 0 0 0 0 0 0 0 0 0 0 0 0 0 0 0 0 0 0 0 0 0 0 0 0 0 0 0 0 0 0 0 0 0 0 0 0 0 0 0 0 0 0 0 0 0 0 0 0 0 0 0 0 0 0 0 0 0 0 0 0 0 0 0 0 0 0 0 0 0 0 0 0 0 0 0 0 0 0 0 0 0 0 0 0 0 0 0 0 0 0 0 0 0 0 0 0 0 0 0 0 0 0 0 0 0 0 0 0 0 0 0 0 0 0 0 0 0 0 0 0 0 0 0 0 0 0 0 0 0 0 0 0 0 0 0 0 0 0 0 0 0 0 0 0 0 0 0 0 0 0 0 0 0 0 0 0 0 0 0 0 0 0 0 0 0 0 0 0 0 0 0 0 0 0 0 0 0 0 0 0 0 0 0 0 0 0 0 0 0 0 0 0 0 0 0 0 0 0 0 0 0 0 0 0 0 0 0 0 0 0 0 0 0 0 0 0 0 0 0 0 0 0 0 0 0 0 0 0 0 0 0 0 0 0 0 0 0 0 0 0 0 0 0 0 0 0 0 0 0 0 0 0 0 0 0 0 0 0 0 0 0 0 0 0 0 0 0 0 0 0 0 0 0 0 0 0 0 0 0 0 0 0 0 0 0 0 0 0 0 0 0 0 0 0 0 0 0 0 0 0 0 0 0 0 0 0 0 0 0 0 0 0 0 0 0 0 0 0 0 0 0 0 0 0 0 0 0 0 0 0 0 0 0 0 0 0 0 0 0 0 0 0 0 0 0 0 0 0 0 0 0 0 </DataArray>